ncomb = 1
BOUND = 2
TITLE = "mesh"
VARIABLES = x, y 
ZONE T="edge1", N=85, E=84, ET=LINESEG, F=FEBLOCK, VAL=0.0000

2.666710e-001 
2.833379e-001 2.500042e-001 2.000035e-001 2.166704e-001 1.833366e-001 2.333373e-001 3.000048e-001 3.166716e-001 1.666696e-001 1.333358e-001 
1.500027e-001 3.333385e-001 8.333492e-002 1.000019e-001 1.166688e-001 6.666795e-002 3.500053e-001 5.000098e-002 3.666722e-001 3.333399e-002 
3.833390e-001 4.000058e-001 4.166726e-001 4.333394e-001 1.666700e-002 4.500062e-001 4.666730e-001 0.000000e+000 4.833398e-001 5.000065e-001 
5.166733e-001 5.333401e-001 5.500068e-001 5.666735e-001 5.833403e-001 6.000070e-001 6.166737e-001 6.333404e-001 6.500071e-001 6.666738e-001 
6.833405e-001 7.000072e-001 7.166738e-001 7.333405e-001 7.500071e-001 7.666738e-001 7.833404e-001 8.000070e-001 8.166736e-001 8.333402e-001 
8.500068e-001 8.666734e-001 8.833400e-001 9.000065e-001 9.166731e-001 9.333397e-001 9.500062e-001 9.666728e-001 9.833393e-001 1.000006e+000 
1.016672e+000 1.033339e+000 1.050005e+000 1.066672e+000 1.083338e+000 1.100005e+000 1.116671e+000 1.133338e+000 1.150004e+000 1.166671e+000 
1.183337e+000 1.200003e+000 1.216670e+000 1.233336e+000 1.250003e+000 1.266669e+000 1.283336e+000 1.300002e+000 1.316668e+000 1.333335e+000 
1.350001e+000 1.366667e+000 1.383334e+000 1.400000e+000 
0.000000e+000 
0.000000e+000 0.000000e+000 0.000000e+000 0.000000e+000 0.000000e+000 0.000000e+000 0.000000e+000 0.000000e+000 0.000000e+000 0.000000e+000 
0.000000e+000 0.000000e+000 0.000000e+000 0.000000e+000 0.000000e+000 0.000000e+000 0.000000e+000 0.000000e+000 0.000000e+000 0.000000e+000 
0.000000e+000 0.000000e+000 0.000000e+000 0.000000e+000 0.000000e+000 0.000000e+000 0.000000e+000 0.000000e+000 0.000000e+000 0.000000e+000 
0.000000e+000 0.000000e+000 0.000000e+000 0.000000e+000 0.000000e+000 0.000000e+000 0.000000e+000 0.000000e+000 0.000000e+000 0.000000e+000 
0.000000e+000 0.000000e+000 0.000000e+000 0.000000e+000 0.000000e+000 0.000000e+000 0.000000e+000 0.000000e+000 0.000000e+000 0.000000e+000 
0.000000e+000 0.000000e+000 0.000000e+000 0.000000e+000 0.000000e+000 0.000000e+000 0.000000e+000 0.000000e+000 0.000000e+000 0.000000e+000 
0.000000e+000 0.000000e+000 0.000000e+000 0.000000e+000 0.000000e+000 0.000000e+000 0.000000e+000 0.000000e+000 0.000000e+000 0.000000e+000 
0.000000e+000 0.000000e+000 0.000000e+000 0.000000e+000 0.000000e+000 0.000000e+000 0.000000e+000 0.000000e+000 0.000000e+000 0.000000e+000 
0.000000e+000 0.000000e+000 0.000000e+000 0.000000e+000 
1164 1168
1172 1164
1166 1173
1182 1166
1176 1172
1173 1176
1168 1185
1185 1210
1229 1182
1222 1226
1226 1229
1210 1250
1234 1228
1246 1222
1228 1246
1267 1234
1250 1272
1284 1267
1272 1296
1324 1284
1296 1322
1322 1302
1302 1323
1323 1373
1390 1324
1373 1391
1391 1416
1445 1390
1416 1464
1464 1503
1503 1525
1514 1520
1525 1514
1520 1530
1530 1544
1544 1568
1568 1567
1567 1572
1572 1579
1579 1589
1589 1607
1607 1619
1619 1628
1628 1623
1623 1633
1633 1653
1653 1669
1669 1682
1682 1699
1699 1712
1712 1726
1726 1723
1723 1730
1730 1754
1754 1774
1774 1798
1798 1818
1818 1841
1841 1850
1850 1863
1863 1883
1883 1900
1900 1932
1932 1957
1957 1984
1984 1999
1999 2007
2007 2020
2020 2037
2037 2055
2055 2061
2061 2069
2069 2085
2085 2089
2089 2099
2099 2114
2114 2131
2131 2153
2153 2169
2169 2190
2190 2201
2201 2208
2208 2217
2217 2222
ZONE T="edge2", N=302, E=300, ET=LINESEG, F=FEBLOCK, VAL=1.0000

0.000000e+000 
0.000000e+000 0.000000e+000 0.000000e+000 0.000000e+000 0.000000e+000 0.000000e+000 0.000000e+000 0.000000e+000 0.000000e+000 0.000000e+000 
0.000000e+000 0.000000e+000 0.000000e+000 0.000000e+000 0.000000e+000 0.000000e+000 0.000000e+000 0.000000e+000 0.000000e+000 0.000000e+000 
0.000000e+000 5.000000e-001 5.000000e-001 5.000000e-001 5.000000e-001 0.000000e+000 5.000000e-001 5.000000e-001 5.000000e-001 5.000000e-001 
5.000000e-001 5.000000e-001 0.000000e+000 5.000000e-001 5.000000e-001 5.000000e-001 0.000000e+000 5.000000e-001 5.000000e-001 0.000000e+000 
5.000000e-001 5.000000e-001 0.000000e+000 5.000000e-001 0.000000e+000 5.000000e-001 0.000000e+000 5.000000e-001 0.000000e+000 5.000000e-001 
0.000000e+000 5.000000e-001 5.000000e-001 0.000000e+000 5.000000e-001 5.000000e-001 0.000000e+000 5.000000e-001 5.000000e-001 0.000000e+000 
5.000000e-001 0.000000e+000 5.000000e-001 0.000000e+000 5.000000e-001 0.000000e+000 5.000000e-001 5.000000e-001 0.000000e+000 5.000000e-001 
5.000000e-001 5.000000e-001 0.000000e+000 5.000000e-001 5.000000e-001 0.000000e+000 5.000000e-001 5.000000e-001 0.000000e+000 5.000000e-001 
5.000000e-001 0.000000e+000 5.000000e-001 0.000000e+000 5.000000e-001 0.000000e+000 5.000000e-001 5.000000e-001 0.000000e+000 5.000000e-001 
0.000000e+000 5.000000e-001 0.000000e+000 5.000000e-001 0.000000e+000 5.000000e-001 0.000000e+000 0.000000e+000 5.000000e-001 0.000000e+000 
5.000000e-001 0.000000e+000 5.000000e-001 0.000000e+000 5.000000e-001 1.833309e-001 1.666643e-001 1.499978e-001 5.000000e-001 0.000000e+000 
1.999975e-001 1.333313e-001 5.000000e-001 0.000000e+000 2.166641e-001 1.166648e-001 2.333307e-001 0.000000e+000 2.499973e-001 5.000000e-001 
9.999833e-002 0.000000e+000 5.000000e-001 2.666640e-001 5.000000e-001 3.999983e-001 3.833315e-001 4.166652e-001 8.333189e-002 0.000000e+000 
4.333321e-001 3.666646e-001 5.000000e-001 2.833307e-001 4.499991e-001 6.666547e-002 3.499978e-001 0.000000e+000 3.333310e-001 2.999975e-001 
3.166642e-001 4.999907e-002 5.000000e-001 4.666660e-001 3.333269e-002 0.000000e+000 1.666633e-002 4.833330e-001 5.000000e-001 0.000000e+000 
1.400000e+000 1.400000e+000 1.400000e+000 1.400000e+000 1.400000e+000 1.400000e+000 1.400000e+000 1.400000e+000 1.400000e+000 1.400000e+000 
1.400000e+000 1.400000e+000 1.400000e+000 1.400000e+000 1.400000e+000 1.400000e+000 1.400000e+000 1.400000e+000 1.400000e+000 1.400000e+000 
1.400000e+000 1.400000e+000 9.000000e-001 9.000000e-001 9.000000e-001 9.000000e-001 9.000000e-001 9.000000e-001 9.000000e-001 9.000000e-001 
1.400000e+000 9.000000e-001 9.000000e-001 9.000000e-001 9.000000e-001 1.400000e+000 9.000000e-001 9.000000e-001 1.400000e+000 9.000000e-001 
1.400000e+000 9.000000e-001 9.000000e-001 9.000000e-001 1.400000e+000 9.000000e-001 9.000000e-001 9.000000e-001 1.400000e+000 9.000000e-001 
1.400000e+000 9.000000e-001 1.400000e+000 1.400000e+000 9.000000e-001 9.000000e-001 1.400000e+000 9.000000e-001 1.400000e+000 9.000000e-001 
1.400000e+000 9.000000e-001 1.400000e+000 9.000000e-001 1.400000e+000 9.000000e-001 1.400000e+000 9.000000e-001 1.400000e+000 9.000000e-001 
1.400000e+000 9.000000e-001 1.400000e+000 9.000000e-001 1.400000e+000 9.000000e-001 9.000000e-001 1.400000e+000 9.000000e-001 1.400000e+000 
9.000000e-001 1.400000e+000 1.400000e+000 9.000000e-001 9.000000e-001 1.400000e+000 9.000000e-001 1.400000e+000 9.000000e-001 1.400000e+000 
9.000000e-001 1.400000e+000 9.000000e-001 1.400000e+000 1.400000e+000 9.000000e-001 1.400000e+000 9.000000e-001 1.400000e+000 1.400000e+000 
9.000000e-001 1.400000e+000 9.000000e-001 1.400000e+000 1.299998e+000 1.283331e+000 1.266665e+000 1.316665e+000 1.249998e+000 9.000000e-001 
1.233331e+000 1.333332e+000 1.216664e+000 1.400000e+000 1.199997e+000 1.349999e+000 1.183331e+000 9.000000e-001 1.166664e+000 1.149997e+000 
1.400000e+000 1.366666e+000 9.000000e-001 1.133331e+000 1.400000e+000 1.116664e+000 9.000000e-001 1.383333e+000 9.000000e-001 1.400000e+000 
9.000000e-001 1.099997e+000 9.000000e-001 1.400000e+000 9.000000e-001 1.083331e+000 9.000000e-001 1.066664e+000 1.049998e+000 9.000000e-001 
1.033331e+000 1.016665e+000 9.999983e-001 9.833319e-001 9.000000e-001 9.666655e-001 9.499991e-001 9.333327e-001 9.166663e-001 9.000000e-001 
9.000000e-001 
1.016666e+000 
1.000000e+000 1.033333e+000 1.049999e+000 1.066665e+000 1.083332e+000 1.099998e+000 1.116665e+000 1.133331e+000 1.149997e+000 1.166664e+000 
1.183330e+000 1.199997e+000 1.216663e+000 1.233330e+000 1.249996e+000 1.266663e+000 1.283329e+000 1.299996e+000 1.316662e+000 1.333329e+000 
1.349995e+000 1.066668e+000 1.083335e+000 1.050001e+000 1.100002e+000 1.366662e+000 1.116669e+000 1.033334e+000 1.166670e+000 1.183336e+000 
1.133336e+000 1.150003e+000 1.383328e+000 1.200003e+000 1.016667e+000 1.216670e+000 1.399995e+000 1.233337e+000 1.000000e+000 1.416662e+000 
1.250004e+000 1.266671e+000 1.433328e+000 1.283337e+000 1.449995e+000 1.300004e+000 1.466662e+000 1.316671e+000 1.483328e+000 1.333338e+000 
1.499995e+000 1.350005e+000 1.366671e+000 1.516662e+000 1.383338e+000 1.400005e+000 1.533328e+000 1.416672e+000 1.433338e+000 1.549995e+000 
1.450005e+000 1.566662e+000 1.466672e+000 1.583328e+000 1.483338e+000 1.599995e+000 1.500005e+000 1.516672e+000 1.616662e+000 1.533338e+000 
1.550005e+000 1.566672e+000 1.633329e+000 1.583338e+000 1.600005e+000 1.649995e+000 1.616672e+000 1.633338e+000 1.666662e+000 1.650005e+000 
1.666671e+000 1.683329e+000 1.683338e+000 1.699996e+000 1.700004e+000 1.716663e+000 1.716671e+000 1.733337e+000 1.733329e+000 1.750004e+000 
1.749996e+000 1.766670e+000 1.766663e+000 1.783337e+000 1.783330e+000 1.800003e+000 1.799997e+000 1.816664e+000 1.816670e+000 1.833331e+000 
1.833336e+000 1.849997e+000 1.850003e+000 1.866664e+000 1.866669e+000 2.000000e+000 2.000000e+000 2.000000e+000 1.883335e+000 1.883331e+000 
2.000000e+000 2.000000e+000 1.900002e+000 1.899998e+000 2.000000e+000 2.000000e+000 2.000000e+000 1.916665e+000 2.000000e+000 1.916668e+000 
2.000000e+000 1.933332e+000 1.933335e+000 2.000000e+000 1.950001e+000 2.000000e+000 2.000000e+000 2.000000e+000 2.000000e+000 1.949999e+000 
2.000000e+000 2.000000e+000 1.966667e+000 2.000000e+000 2.000000e+000 2.000000e+000 2.000000e+000 1.966666e+000 2.000000e+000 2.000000e+000 
2.000000e+000 2.000000e+000 1.983334e+000 2.000000e+000 2.000000e+000 1.983333e+000 2.000000e+000 2.000000e+000 2.000000e+000 2.000000e+000 
1.000000e+000 1.016667e+000 1.033334e+000 1.050001e+000 1.066668e+000 1.083335e+000 1.100002e+000 1.116669e+000 1.133336e+000 1.150003e+000 
1.166670e+000 1.183336e+000 1.200003e+000 1.216670e+000 1.233337e+000 1.250004e+000 1.266671e+000 1.283337e+000 1.300004e+000 1.316671e+000 
1.333338e+000 1.350005e+000 1.066665e+000 1.049999e+000 1.033333e+000 1.083332e+000 1.183330e+000 1.166664e+000 1.099998e+000 1.149997e+000 
1.366671e+000 1.133331e+000 1.199997e+000 1.016666e+000 1.116665e+000 1.383338e+000 1.216663e+000 1.000000e+000 1.400005e+000 1.233330e+000 
1.416672e+000 1.249996e+000 1.266663e+000 1.283329e+000 1.433338e+000 1.299996e+000 1.316662e+000 1.333329e+000 1.450005e+000 1.349995e+000 
1.466672e+000 1.366662e+000 1.483338e+000 1.500005e+000 1.383328e+000 1.399995e+000 1.516672e+000 1.416662e+000 1.533338e+000 1.433328e+000 
1.550005e+000 1.449995e+000 1.566672e+000 1.466662e+000 1.583338e+000 1.483328e+000 1.600005e+000 1.499995e+000 1.616672e+000 1.516662e+000 
1.633338e+000 1.533328e+000 1.650005e+000 1.549995e+000 1.666671e+000 1.566662e+000 1.583328e+000 1.683338e+000 1.599995e+000 1.700004e+000 
1.616662e+000 1.716671e+000 1.733337e+000 1.633329e+000 1.649995e+000 1.750004e+000 1.666662e+000 1.766670e+000 1.683329e+000 1.783337e+000 
1.699996e+000 1.800003e+000 1.716663e+000 1.816670e+000 1.833336e+000 1.733329e+000 1.850003e+000 1.749996e+000 1.866669e+000 1.883335e+000 
1.766663e+000 1.900002e+000 1.783330e+000 1.916668e+000 2.000000e+000 2.000000e+000 2.000000e+000 2.000000e+000 2.000000e+000 1.799997e+000 
2.000000e+000 2.000000e+000 2.000000e+000 1.933335e+000 2.000000e+000 2.000000e+000 2.000000e+000 1.816664e+000 2.000000e+000 2.000000e+000 
1.950001e+000 2.000000e+000 1.833331e+000 2.000000e+000 1.966667e+000 2.000000e+000 1.849997e+000 2.000000e+000 1.866664e+000 1.983334e+000 
1.883331e+000 2.000000e+000 1.899998e+000 2.000000e+000 1.916665e+000 2.000000e+000 1.933332e+000 2.000000e+000 2.000000e+000 1.949999e+000 
2.000000e+000 2.000000e+000 2.000000e+000 2.000000e+000 1.966666e+000 2.000000e+000 2.000000e+000 2.000000e+000 2.000000e+000 1.983333e+000 
2.000000e+000 
47 40
56 47
67 56
75 67
82 75
94 82
97 94
104 97
110 104
120 110
130 120
135 130
145 135
156 145
172 156
194 172
216 194
239 216
260 239
287 260
309 287
310 321
324 310
321 330
344 309
330 342
358 324
343 350
342 353
361 343
353 361
372 344
350 378
395 358
378 390
401 372
390 405
411 395
423 401
405 425
425 441
446 423
441 464
466 446
464 483
488 466
483 504
510 488
504 517
535 510
517 531
531 549
561 535
549 557
557 569
591 561
569 586
586 607
618 591
607 627
642 618
627 652
669 642
652 688
714 669
688 711
711 723
755 714
723 752
752 764
764 775
792 755
775 794
794 819
825 792
819 833
833 846
861 825
846 862
862 885
894 861
885 905
933 894
905 937
966 933
937 964
964 999
1013 966
999 1035
1046 1013
1035 1067
1076 1046
1067 1108
1114 1076
1108 1145
1159 1114
1203 1159
1145 1219
1259 1203
1219 1283
1274 1259
1283 1291
1309 1274
1291 1303
1310 1298
1298 1320
1303 1330
1344 1309
1351 1310
1320 1346
1330 1369
1359 1344
1372 1351
1346 1383
1371 1372
1384 1359
1406 1371
1369 1409
1383 1414
1420 1384
1409 1415
1438 1406
1415 1434
1421 1431
1437 1421
1414 1448
1456 1420
1444 1437
1431 1467
1434 1466
1473 1438
1472 1444
1448 1469
1467 1470
1489 1456
1470 1478
1475 1473
1479 1475
1478 1479
1469 1493
1466 1513
1507 1472
1493 1512
1535 1489
1512 1538
1545 1507
1513 1560
1560 1545
1573 1535
1538 1573
2236 2239
2239 2241
2241 2246
2246 2252
2252 2258
2258 2266
2266 2276
2276 2285
2285 2288
2288 2299
2299 2311
2311 2323
2323 2336
2336 2350
2350 2367
2367 2375
2375 2381
2381 2394
2394 2410
2410 2427
2427 2450
2445 2439
2439 2454
2452 2445
2458 2459
2467 2452
2459 2463
2450 2475
2463 2471
2478 2458
2454 2482
2476 2467
2471 2476
2475 2500
2503 2478
2482 2508
2500 2515
2522 2503
2515 2532
2527 2522
2530 2527
2541 2530
2532 2545
2546 2541
2552 2546
2555 2552
2545 2565
2564 2555
2565 2566
2572 2564
2566 2571
2571 2583
2582 2572
2592 2582
2583 2598
2604 2592
2598 2611
2616 2604
2611 2623
2626 2616
2623 2639
2640 2626
2639 2652
2651 2640
2652 2660
2664 2651
2660 2668
2677 2664
2668 2680
2687 2677
2680 2697
2698 2687
2697 2708
2709 2698
2720 2709
2708 2725
2734 2720
2725 2739
2755 2734
2739 2753
2753 2769
2772 2755
2779 2772
2769 2787
2790 2779
2787 2800
2804 2790
2800 2806
2818 2804
2806 2822
2833 2818
2822 2831
2831 2844
2850 2833
2844 2858
2859 2850
2858 2860
2860 2867
2870 2859
2867 2879
2885 2870
2879 2896
2892 2891
2891 2895
2898 2892
2895 2905
2915 2885
2905 2903
2914 2898
2903 2910
2896 2926
2910 2920
2927 2914
2920 2925
2931 2915
2925 2928
2928 2933
2926 2940
2939 2927
2942 2931
2933 2943
2940 2948
2943 2949
2950 2942
2957 2939
2952 2950
2948 2958
2954 2952
2949 2959
2962 2954
2968 2957
2958 2968
2967 2962
2959 2972
2974 2967
2972 2977
2977 2978
2981 2974
2978 2982
2982 2984
2984 2985
2985 2986
2991 2981
2986 2989
2989 2987
2987 2990
2990 2993
2995 2991
2993 2996
2996 2995
