VARIABLES = "X"
 "Y"
 "UDS1"
ZONE
DT=(DOUBLE,DOUBLE,DOUBLE)
      0.515824559774287       0.999986564963421        48.1030315945528 
      0.515696304079662       0.994941840974852        48.1104149621997 
      0.515568048385037       0.989897116986281        48.1178309870122 
      0.515439792690413       0.984852392997712        48.1252219349776 
      0.515311536995788       0.979807669009142         48.140162008855 
      0.515183281301163       0.974762945020572        48.1617395567048 
      0.515055025606539       0.969718221032002        48.1833875537863 
      0.514926769911914       0.964673497043432        48.2058721155878 
       0.51479851421729       0.959628773054862        48.2418886833307 
      0.514670258522665       0.954584049066292         48.278134210269 
       0.51454200282804       0.949539325077723        48.3142199361458 
      0.514413747133416       0.944494601089153        48.3591825321252 
      0.514285491438791       0.939449877100583        48.4103853927517 
      0.514157235744166       0.934405153112013        48.4617105830344 
      0.514028980049541       0.929360429123443        48.5147494235798 
      0.513900724354917       0.924315705134873        48.5815783401905 
      0.513772468660292       0.919270981146303        48.6488642475095 
      0.513644212965668       0.914226257157734        48.7158356469023 
      0.513515957271043       0.909181533169164        48.7936483044932 
      0.513387701576418       0.904136809180594         48.877623834991 
      0.513259445881794       0.899092085192024        48.9617239592122 
      0.513131190187169       0.894047361203454        49.0486805703365 
      0.513002934492544       0.889002637214884        49.1504415624657 
       0.51287467879792       0.883957913226314        49.2527164236074 
      0.512746423103295       0.878913189237745        49.3546015045574 
       0.51261816740867       0.873868465249175        49.4701513449155 
      0.512489911714046       0.868823741260605        49.5919879428775 
      0.512361656019421       0.863779017272035        49.7138791436995 
      0.512233400324796       0.858734293283465        49.8402546195599 
      0.512105144630172       0.853689569294895        49.9830756703982 
      0.511976888935547       0.848644845306326        50.1263580450801 
      0.511848633240922       0.843600121317756        50.2692236574012 
      0.511720377546298       0.838555397329186        50.4299084001876 
      0.511592121851673       0.833510673340616        50.5966454784454 
      0.511463866157048       0.828465949352046        50.7633825567032 
      0.511335610462424       0.823421225363476        50.9371596748498 
      0.511207354767799       0.818376501374906        51.1294251866451 
      0.511079099073174       0.813331777386337        51.3219682514474 
       0.51095084337855       0.808287053397767        51.5141295744809 
      0.510822587683925       0.803242329409197        51.7298444625689 
        0.5106943319893       0.798197605420627        51.9508319575917 
      0.510566076294676       0.793152881432057        52.1718194526145 
      0.510437820600051       0.788108157443487         52.403502245252 
      0.510309564905426       0.783063433454917         52.655833705063 
      0.510181309210802       0.778018709466348         52.908165164874 
      0.510053053516177       0.772973985477778          53.16022493424 
      0.509924797821553       0.767929261489208        53.4432091140498 
      0.509796542126928       0.762884537500638        53.7300027869762 
      0.509668286432303       0.757839813512068        54.0167964599027 
      0.509540030737679       0.752795089523498        54.3194956360833 
      0.509411775043054       0.747750365534928        54.6440032544634 
      0.509283519348429       0.742705641546359        54.9685108728436 
      0.509155263653804       0.737660917557789        55.2929219899394 
       0.50902700795918       0.732616193569219        55.6569116759618 
      0.508898752264555       0.727571469580649        56.0223987368411 
      0.508770496569931       0.722526745592079        56.3878857977204 
      0.508642240875306       0.717482021603509        56.7748992673499 
      0.508513985180681       0.712437297614939        57.1833360335427 
      0.508385729486057        0.70739257362637        57.5917727997356 
      0.508257473791432         0.7023478496378        58.0016209945626 
      0.508129218096807        0.69730312564923        58.4568597354199 
      0.508000962402183        0.69225840166066        58.9120984762772 
      0.507872706707558        0.68721367767209        59.3673372171345 
      0.507744451012933        0.68216895368352        59.8500779210713 
      0.507616195318309        0.67712422969495         60.354323170664 
      0.507487939623684       0.672079505706381        60.8585684202567 
      0.507359683929059       0.667034781717811         61.367464636366 
      0.507231428234435       0.661990057729241        61.9221418688375 
       0.50710317253981       0.656945333740671         62.476819101309 
      0.506974916845185       0.651900609752101        63.0314963337805 
      0.505564104204314       0.596408645877833        26.6645813327079 
      0.505435848509689       0.591363921889263        26.0727229713845 
      0.505307592815065       0.586319197900693        25.4808646100611 
       0.50517933712044       0.581274473912123        24.8865134236859 
      0.505051081425815       0.576229749923553        24.2715249214713 
      0.504922825731191       0.571185025934983        23.6565364192566 
      0.504794570036566       0.566140301946413        23.0415479170419 
      0.504666314341942       0.561095577957844        22.4153509098411 
      0.504538058647317       0.556050853969274        21.7781079378476 
      0.504409802952692       0.551006129980704         21.140864965854 
      0.504281547258068       0.545961405992134        20.5036219938605 
      0.504153291563443       0.540916682003564        19.8475810732858 
      0.504025035868818       0.535871958014994        19.1894405746344 
      0.503896780174194       0.530827234026425         18.531300075983 
      0.503768524479569       0.525782510037855        17.8674958225228 
      0.503640268784944       0.520737786049285        17.1901818921273 
       0.50351201309032       0.515693062060715        16.5128679617318 
      0.503383757395695       0.510648338072145        15.8355540313363 
       0.50325550170107       0.505603614083575        15.1463866198743 
      0.503127246006446       0.500558890095006        14.4519253908357 
      0.502998990311821       0.495514166106436         13.757464161797 
      0.502870734617196       0.490469442117866        13.0617069151306 
      0.502742478922572       0.485424718129296        12.3523749019101 
      0.502614223227947       0.480379994140726        11.6430428886895 
      0.502485967533322       0.475335270152156         10.933710875469 
      0.502357711838698       0.470290546163586        10.2184124517696 
      0.502229456144073       0.465245822175017        9.49672823565166 
      0.502101200449448       0.460201098186447        8.77504401953365 
      0.501972944754824       0.455156374197877        8.05335980341565 
      0.501844689060199       0.450111650209307        7.32325924741401 
      0.501716433365574       0.445066926220737        6.59199906024114 
       0.50158817767095       0.440022202232167        5.86073887306826 
      0.501459921976325       0.434977478243597        5.12767670006092 
        0.5013316662817       0.429932754255027        4.38985844860404 
      0.501203410587076       0.424888030266458        3.65204019714718 
      0.501075154892451       0.419843306277888        2.91422194569031 
      0.500946899197826       0.414798582289318        2.17416487970849 
      0.500818643503202       0.409753858300748        1.43300833329216 
      0.500690387808577       0.404709134312178       0.691851786875817 
      0.499279575167706        0.34921717043791      0.0182833868581997 
      0.499151319473081        0.34417244644934       0.136106406098185 
      0.499023063778457        0.33912772246077       0.253929425338168 
      0.498894808083832         0.3340829984722       0.371752444578152 
      0.498766552389207        0.32903827448363       0.488444006791908 
      0.498638296694583       0.323993550495061       0.604618174704712 
      0.498510040999958       0.318948826506491       0.720792342617518 
      0.498381785305333       0.313904102517921        0.83627386692921 
      0.498253529610709       0.308859378529351       0.949259594819994 
      0.498125273916084       0.303814654540781        1.06224532271078 
      0.497997018221459       0.298769930552211        1.17523105060157 
      0.497868762526835       0.293725206563641        1.28482557336271 
       0.49774050683221       0.288680482575072        1.39327923100267 
      0.497612251137585       0.283635758586502        1.50173288864264 
      0.497483995442961       0.278591034597932         1.6086160364471 
      0.497355739748336       0.273546310609362        1.71144657379853 
      0.497227484053711       0.268501586620792        1.81427711114996 
      0.497099228359087       0.263456862632222        1.91710764850139 
      0.496970972664462       0.258412138643652        2.01471742666472 
      0.496842716969837       0.253367414655083        2.11110514132153 
      0.496714461275213       0.248322690666513        2.20749285597833 
      0.496586205580588       0.243277966677943        2.30149055630505 
      0.496457949885963       0.238233242689373        2.39087670538035 
      0.496329694191339       0.233188518700803        2.48026285445564 
      0.496201438496714       0.228143794712233        2.56964900353094 
      0.496073182802089       0.223099070723663        2.65264159038869 
      0.495944927107465       0.218054346735094        2.73469889898181 
       0.49581667141284       0.213009622746524        2.81675620757492 
      0.495688415718215       0.207964898757954        2.89580183885129 
      0.495560160023591       0.202920174769384        2.97039360743117 
      0.495431904328966       0.197875450780814        3.04498537601105 
      0.495303648634341       0.192830726792244        3.11957714459093 
      0.495175392939717       0.187786002803674        3.18720212443133 
      0.495047137245092       0.182741278815104        3.25433831754847 
      0.494918881550468       0.177696554826535        3.32147451066562 
      0.494790625855843       0.172651830837965        3.38519404056056 
      0.494662370161218       0.167607106849395        3.44498998533777 
      0.494534114466594       0.162562382860825        3.50478593011497 
      0.494405858771969       0.157517658872255        3.56458187489217 
      0.494277603077344       0.152472934883685        3.61724729544521 
       0.49414934738272       0.147428210895115        3.66988766648256 
      0.494021091688095       0.142383486906546        3.72252803751991 
       0.49389283599347       0.137338762917976         3.7715116152572 
      0.493764580298846       0.132294038929406        3.81722005645075 
      0.493636324604221       0.127249314940836         3.8629284976443 
      0.493508068909596       0.122204590952266        3.90824496398101 
      0.493379813214972       0.117159866963696         3.9472596731468 
      0.493251557520347       0.112115142975126         3.9862743823126 
      0.493123301825722       0.107070418986557        4.02528909147839 
      0.492995046131098       0.102025694997987        4.06049562635518 
      0.492866790436473      0.0969809710094169        4.09305127723683 
      0.492738534741848      0.0919362470208471        4.12560692811847 
      0.492610279047224      0.0868915230322772        4.15740961452697 
      0.492482023352599      0.0818467990437074        4.18372261787381 
      0.492353767657974      0.0768020750551376        4.21003562122065 
       0.49222551196335      0.0717573510665677         4.2363486245675 
      0.492097256268725      0.0667126270779979        4.25871652531366 
        0.4919690005741      0.0616679030894279        4.27897546896146 
      0.491840744879476      0.0566231791008581        4.29923441260927 
      0.491712489184851      0.0515784551122883        4.31841533180491 
      0.491584233490226      0.0465337311237184        4.33277294003253 
      0.491455977795602      0.0414890071351485        4.34713054826016 
      0.491327722100977      0.0364442831465787        4.36148815648778 
      0.491199466406352      0.0313995591580088        4.37183318580133 
      0.491071210711728       0.026354835169439        4.38054742597321 
      0.490942955017103      0.0213101111808691        4.38926166614508 
      0.490814699322478      0.0162653871922992        4.39657155900642 
      0.490686443627854      0.0112206632037294        4.39956446902339 
      0.490558187933229     0.00617593921515958        4.40255737904036 
      0.490429932238604     0.00113121522658977        4.40555028905733 
